32
Lattice="5.62305055238157 -3.376281433826e-07 0.0 0.0 7.95219447864019 0.0 0.0 0.0 20.9641445127367" Properties=species:S:1:pos:R:3:energies:R:1:forces:R:3 energy=-260.8016442481713 free_energy=-260.8016442481713 stress="-0.002139765639686042 -2.218153837532738e-06 -4.940929011822558e-07 -2.218153837532738e-06 -0.0232112424045587 -8.028790469192501e-06 -4.940929011822558e-07 -8.028790469192501e-06 -0.0005959906633723233" pbc="T T T"
Fe       0.49808982       2.98421999       0.99998969      -8.04433219      -0.00025038      -0.00001698       0.01747609
Fe       4.71537773       6.96031698       2.98801952      -8.25855089       0.00085560       0.00119363      -0.04715513
Fe       4.71537773       4.97226836       0.99998969      -8.04433227       0.00007117       0.00001377       0.01755051
Fe       3.31023363       4.97210940       6.98525295      -8.04082741      -0.00685756      -0.00104443       0.02234372
Fe       3.31028986       6.96087372       5.00497986      -8.25614249      -0.00906847      -0.00080181       0.00252030
Fe       3.30961509       4.97226844       2.98801952      -8.25866638      -0.00033947       0.00091529      -0.04783581
Fe       3.30961509       6.96031706       0.99998969      -8.04433979       0.00023482       0.00002510       0.01738011
Fe       1.90390869       6.96015810       6.98504331      -8.04099155      -0.00034334      -0.00061895       0.02356385
Fe       1.90385246       4.97314327       5.00456058      -8.25652290       0.00075501      -0.00547199       0.01059578
Fe       1.90385246       6.96031715       2.98801952      -8.25883178       0.00058392       0.00117510      -0.04512748
Fe       1.90385246       4.97226853       0.99998969      -8.04433565       0.00008951       0.00000195       0.01762547
Fe       0.49741505       4.97210957       6.98525295      -8.04109326       0.00611039      -0.00071484       0.02204193
Fe       0.49808982       6.96095341       5.00497986      -8.25626350       0.00217496      -0.00127583       0.00337404
Fe       0.49808982       4.97226861       2.98801952      -8.25870000      -0.00019087       0.00076181      -0.04718514
Fe       0.49808982       6.96031723       0.99998969      -8.04433811      -0.00028511       0.00004669       0.01751595
Fe       4.71515281       2.98350404       6.98504331      -8.04060497       0.00189910       0.00336101       0.02410648
Fe       4.71515281       0.99672777       5.00477022      -8.25611233       0.00447656      -0.00205532       0.00477912
Fe       4.71537773       2.98421974       2.98801952      -8.25856097       0.00110804       0.00076158      -0.04716416
Fe       4.71537773       0.99617112       0.99998969      -8.04432800       0.00003700       0.00002382       0.01750672
Fe       3.31017740       0.99545551       6.98546259      -8.04066705      -0.00648257       0.00348531       0.02240357
Fe       3.31017740       2.98469695       5.00477022      -8.25631106      -0.00778514      -0.00039546       0.00619023
Fe       3.30961509       0.99617120       2.98801952      -8.25870077      -0.00007724       0.00056103      -0.04757284
Fe       3.30961509       2.98421982       0.99998969      -8.04434495       0.00019385      -0.00002408       0.01751779
Fe       1.90385246       2.98350421       6.98504331      -8.04129046       0.00033542       0.00373550       0.02261923
Fe       1.90390869       0.99672794       5.00456058      -8.25647779       0.00014784      -0.00248652       0.01007735
Fe       1.90385246       2.98421991       2.98801952      -8.25883718       0.00029263       0.00082089      -0.04542099
Fe       1.90385246       0.99617129       0.99998969      -8.04437205       0.00012015       0.00000787       0.01761832
Fe       0.49752751       0.99545567       6.98546259      -8.04088697       0.00531155       0.00335801       0.02193403
Fe       0.49814605       2.98469712       5.00497986      -8.25659852       0.00110263      -0.00054651       0.00444301
Fe       0.49808982       0.99617137       2.98801952      -8.25880610      -0.00047238       0.00075795      -0.04651883
Fe       4.71520904       4.97306358       5.00456058      -8.25623314       0.00383968      -0.00522429       0.00704727
Fe       4.71515281       6.96015793       6.98504331      -8.04024377       0.00241249      -0.00032931       0.02574962
