41
Lattice="5.623050552 -3.38e-07 0.0 0.0 7.952194479 0.0 0.0 0.0 20.964144513" Properties=species:S:1:pos:R:3:forces:R:3 magmom=72.7442355 stress="0.01103603670809475 -0.00033610526642881343 -0.00011579247730338619 -0.00033610526642881343 0.0042218254293478205 -0.00020926531797261388 -0.00011579247730338619 -0.00020926531797261388 0.0031540030820552097" free_energy=-317.16630698 energy=-317.16596722 pbc="T T T"
Fe       0.49809000       2.98422000       0.99999000      -0.02544700      -0.01817600      -0.00410900
Fe       1.92939000       7.03259000       7.21832000       0.00083900       0.00026600       0.00139500
Fe       4.71538000       4.97227000       0.99999000      -0.00099200       0.00497100      -0.02447000
Fe       3.31180000       4.92135000       7.01653000       0.00557700      -0.00305300       0.00007400
Fe       3.31062000       6.96214000       5.06271000      -0.00289900       0.00250300      -0.00094700
Fe       3.30962000       4.97227000       2.98802000       0.04024300       0.02132400       0.06555000
Fe       3.30962000       6.96032000       0.99999000       0.01500700       0.00238700      -0.05123200
Fe       0.48471000       4.95072000       6.98457000      -0.00790500      -0.00311800      -0.00293600
Fe       1.90385000       6.96032000       2.98802000      -0.03977200      -0.01624200       0.26039100
Fe       1.90385000       4.97227000       0.99999000      -0.02870400      -0.01477700      -0.10811500
Fe       4.72033000       0.97531000       4.95916000      -0.00206400       0.00432500       0.00148300
Fe       0.50643000       6.95968000       5.05816000      -0.00129600       0.00053000      -0.00167600
Fe       0.49809000       6.96032000       0.99999000      -0.00908000       0.00890500      -0.01382100
Fe       1.90574000       4.98783000       4.99985000       0.00202800      -0.00278000      -0.00544700
Fe       4.71538000       6.96032000       2.98802000       0.01549800      -0.05977200       0.18900600
Fe       4.71538000       0.99617000       0.99999000      -0.01799500       0.01761300      -0.12319400
Fe       0.49809000       4.97227000       2.98802000      -0.02535100      -0.00643400       0.04780300
Fe       1.90385000       0.99617000       0.99999000       0.00535100       0.03511100      -0.08693300
Fe       4.76937000       6.89167000       7.09047000       0.00214700       0.00470300       0.00360600
Fe       4.71180000       4.98844000       5.00411000      -0.00168600      -0.00606100      -0.00262800
Fe       0.49809000       0.99617000       2.98802000       0.04011700      -0.02853800      -0.02600600
Fe       4.72404000       3.04748000       6.89879000       0.00195800       0.00032300       0.00928600
Fe       0.45585000       0.97358000       6.97624000      -0.00513800       0.00112600       0.00293500
Fe       4.71538000       2.98422000       2.98802000       0.02412300       0.06777500      -0.07626600
Fe       1.90385000       2.98422000       2.98802000       0.02193100       0.01030300      -0.03879300
Fe       0.50600000       2.97979000       4.99344000       0.00096000      -0.00257300      -0.00178100
Fe       1.90034000       2.94231000       6.96160000      -0.00268300       0.00096300       0.00148100
Fe       3.30962000       2.98422000       0.99999000       0.03179300      -0.02501000       0.00525900
Fe       3.30962000       0.99617000       2.98802000      -0.05155600      -0.03146100      -0.01687100
Fe       3.30313000       2.98054000       4.99298000       0.00118100      -0.00042500      -0.00535400
Fe       3.34764000       1.04550000       6.95263000       0.00181000      -0.00021400       0.00050700
Fe       1.90465000       0.97041000       4.97935000       0.00142900       0.00491000       0.00197000
H        3.68041000       7.52985000       9.20773000       0.00089200       0.00733200       0.00101700
H        4.73974000       1.73325000       9.11594000       0.00109100       0.00106600      -0.00641200
H        1.81074000       4.37664000       9.15362000       0.00074800       0.00479100       0.00111700
H        1.88921000       1.50195000       9.11815000      -0.00035300       0.00429800       0.00339700
H        3.49416000       5.89886000       9.24715000       0.00174700      -0.00000000       0.00342700
N        1.89244000       1.41976000       8.09338000       0.00165500       0.00663100      -0.00039100
N        1.84988000       4.37905000       8.12685000       0.00393200       0.00057600       0.00404300
N        4.72715000       1.63043000       8.09291000       0.00108800       0.00360600      -0.00217300
N        3.47414000       6.71272000       8.62467000      -0.00022100       0.00229800      -0.00419100
