41
Lattice="5.623050552 -3.38e-07 0.0 0.0 7.952194479 0.0 0.0 0.0 20.964144513" Properties=species:S:1:pos:R:3:momenta:R:3 potential_energy=-341.3612680536955 source=minimum iteration=99 basin_id=32 chain_accepted=T frame_id=4538 energy=-341.3612680536955 pbc="T T T"
Fe       0.20405689       2.55027718      -0.06738924      -2.05760677       2.08200330      -0.80547909
Fe       1.60642786       6.72200678       6.08837805      -2.51665988       2.68505412       0.32989866
Fe       4.41958120       4.53934680      -0.08212255       0.13286655       2.48233081       0.75527032
Fe       2.82802299       4.57380949       5.91778795      -0.58526053       0.83495528      -1.40208253
Fe       3.00055567       6.52717252       3.99257308       0.85793540      -0.70422577       0.17860577
Fe       3.01771212       4.53911773       1.91664392       0.54022322       1.53504557       0.67291369
Fe       3.01398548       6.52795621      -0.05986256       1.99391618      -0.14956905      -1.88229469
Fe       0.37984048       4.57468755       5.91473576      -1.28146680      -1.38604797       2.16687580
Fe       1.60711810       6.52533634       1.94439830       2.50376179      -0.54255419      -1.93089378
Fe       1.60878623       4.54142165      -0.07354420       1.10807558       0.33736174      -0.86454622
Fe       4.41854456       0.54753757       3.87947880      -0.48433181      -0.46328525       1.02585077
Fe       0.20969521       6.52648666       3.99382103      -0.79559491      -0.40172825       2.86367234
Fe       0.20135500       6.52819599      -0.05770442      -2.51370344      -1.29794600       0.07978032
Fe       1.60436519       4.52159473       3.88349658      -2.30873498      -0.63100536       2.16550345
Fe       4.41822342       6.52808087       1.94471516       0.11990410       3.00307241       0.36659856
Fe       4.41904287       0.56363889      -0.06455681       0.39473751      -0.59749208       0.29582457
Fe       0.19540862       4.54039347       1.91769629       0.72712978       1.28021918      -1.70268203
Fe       1.60849642       0.56196560      -0.07864846      -1.77084290      -2.57713722      -2.22681550
Fe       4.41690879       6.40244211       5.99170385      -2.20717835      -0.07490820      -1.77361737
Fe       4.41662038       4.54746571       3.92434489       1.25024791      -0.49632357       0.14202328
Fe       0.20754707       0.56333509       1.91870852       2.52625687       0.25749358      -1.11806739
Fe       4.41517103       2.76402100       6.07020518       0.99153443      -0.35802265       0.08907732
Fe       0.02379886       0.59564245       5.91478335       0.70669069       2.00646807       1.92901363
Fe       4.41839551       2.55062706       1.93902190      -0.89624018      -1.40070734      -3.15102975
Fe       1.60547982       2.55366144       1.93948458      -0.68383603       1.54725728      -1.01919166
Fe       0.18850410       2.55507345       3.98722997      -0.09554721      -1.32142199      -2.46240384
Fe       1.60131005       2.43672615       5.97631685      -0.73264461      -1.36868728       1.33475071
Fe       3.01255834       2.55081274      -0.06246797       0.49009297      -0.03897550       2.37973872
Fe       3.00475054       0.56395153       1.92110156       0.17180278       0.23499828      -0.33304069
Fe       3.02138614       2.55207860       3.98862023      -1.69148210      -0.28845362       1.19946596
Fe       3.17911419       0.59253139       5.89604438       1.81082373      -1.02588231      -0.04606771
Fe       1.60412682       0.56868564       3.92728995       2.15511593      -0.00098295       3.75177317
H       14.29004684       8.13011676      10.03499803       0.45112950      -0.12522078      -0.09835674
H       10.54380798       0.18330069      10.16958868      -0.44199044      -0.13164119      -0.39330889
H        6.79494087       8.28921494      10.17659364       0.07172843      -0.12422593      -0.07093814
H        7.84200926       1.78295895       9.79471279      -0.07452341      -0.13727885      -0.18701671
H        9.60347111       1.73666996      10.24701893      -0.29713311       0.05553793       0.13623643
N        1.60374421       0.46773713       6.70877362       0.53787423      -0.10231795      -0.51070615
N        1.60514264       5.23772455       7.01734981       1.83505781      -0.71307775       1.35269196
N        4.40025773       1.27603476       6.98148943      -0.06923140      -0.21994761      -0.39214468
N        4.41675928       4.45176374       6.70179897       1.58445674      -0.16988203       0.79813169
