34
Lattice="5.6230505520000085 -3.486609872344063e-23 0.0 -4.780041916831046e-07 7.952194478999986 0.0 0.0 0.0 20.964144513" Properties=species:S:1:pos:R:3:move_mask:L:1:momenta:R:3 potential_energy=-276.0260123600848 source=escape_md iteration=1 basin_id=2 chain_accepted=T frame_id=106 energy=-276.0260123600848 pbc="T T T"
Fe       0.49808982       2.98422003       0.99999000  F       0.00000000       0.00000000       0.00000000
Fe       4.62161893       3.01807350       6.95793575  T      -0.01863032       1.86203780       1.46117350
Fe       4.71537958       6.96032028       2.98802000  F       0.00000000       0.00000000       0.00000000
Fe       4.71537970       4.97227028       0.99999000  F       0.00000000       0.00000000       0.00000000
Fe       3.19839311       5.04454641       7.00832733  T       0.23899194       0.26044577       0.36761533
Fe       3.29703120       7.03424108       4.94308293  T       1.27293881       1.19557574       0.86793031
Fe       3.30961970       4.97227020       2.98802000  F       0.00000000       0.00000000       0.00000000
Fe       3.30961958       6.96032020       0.99999000  F       0.00000000       0.00000000       0.00000000
Fe       1.82194674       6.97053593       6.96389244  T      -1.21964493      -0.25557284      -0.29683302
Fe       1.81070407       5.12111395       5.03667240  T       0.31800649      -0.34410487       0.60592055
Fe       1.90384958       6.96032011       2.98802000  F       0.00000000       0.00000000       0.00000000
Fe       1.90384970       4.97227011       0.99999000  F       0.00000000       0.00000000       0.00000000
Fe       0.40824462       5.04005041       7.13036353  T      -1.50326930       0.48864234      -0.53398911
Fe       0.40001192       7.09804882       5.00972110  T       0.83174535       0.32708791      -0.06426270
Fe       0.49808970       4.97227003       2.98802000  F       0.00000000       0.00000000       0.00000000
Fe       0.49808958       6.96032003       0.99999000  F       0.00000000       0.00000000       0.00000000
Fe       4.74387506       1.11787478       4.92816050  T      -1.22310446      -1.31248253      -1.52549307
Fe       4.64281486       7.00880008       6.96477515  T       0.03983615       0.97111399       0.30535213
Fe       4.61683055       5.09735851       5.03705936  T       0.42582535       0.41884401      -0.65978677
Fe       0.49808994       0.99617003       2.98802000  F       0.00000000       0.00000000       0.00000000
Fe       0.44289576       3.07861125       5.01604556  T      -0.74938674      -0.92540460      -0.02379073
Fe       0.49435763       1.04551188       7.01869077  T      -2.54296897       0.78527021      -0.88645447
Fe       1.90384994       0.99617011       0.99999000  F       0.00000000       0.00000000       0.00000000
Fe       1.90384982       2.98422011       2.98802000  F       0.00000000       0.00000000       0.00000000
Fe       1.77462458       1.12179081       4.91637971  T      -0.87164925       0.26015650       0.65509381
Fe       3.30961982       2.98422020       0.99999000  F       0.00000000       0.00000000       0.00000000
Fe       3.30961994       0.99617020       2.98802000  F       0.00000000       0.00000000       0.00000000
Fe       3.23330364       3.11943960       4.95389538  T       1.18832653      -0.81077581      -1.23231624
Fe       3.25945016       1.06550173       6.87161502  T      -0.10253789       2.66163702       1.84437562
Fe       4.71537994       0.99617028       0.99999000  F       0.00000000       0.00000000       0.00000000
Fe       4.71537982       2.98422028       2.98802000  F       0.00000000       0.00000000       0.00000000
Fe       1.86402757       3.04154113       7.02344757  T      -0.33362216       0.93018951      -0.05622927
H        2.10692834       2.51721943      17.14155052  T       0.15096865       0.42423950       0.14717146
H        2.01204802       0.20566710      17.09032036  T      -0.13129980      -0.18566879       0.29393588
34
Lattice="5.6230505520000085 -3.486609872344063e-23 0.0 -4.780041916831046e-07 7.952194478999986 0.0 0.0 0.0 20.964144513" Properties=species:S:1:pos:R:3:move_mask:L:1:momenta:R:3 potential_energy=-276.1880451467197 source=escape_md iteration=13 basin_id=14 chain_accepted=T frame_id=1084 energy=-276.1880451467197 pbc="T T T"
Fe       0.49808982       2.98422003       0.99999000  F       0.00000000       0.00000000       0.00000000
Fe       4.81691190       2.86977682       7.06992124  T      -1.14120149      -0.69590539      -0.74956076
Fe       4.71537958       6.96032028       2.98802000  F       0.00000000       0.00000000       0.00000000
Fe       4.71537970       4.97227028       0.99999000  F       0.00000000       0.00000000       0.00000000
Fe       3.41071306       4.92047511       7.04294758  T       1.43844075      -0.42534236       0.19806550
Fe       3.33286508       6.97132250       5.01545374  T      -0.54358076       0.72487450       0.38370412
Fe       3.30961970       4.97227020       2.98802000  F       0.00000000       0.00000000       0.00000000
Fe       3.30961958       6.96032020       0.99999000  F       0.00000000       0.00000000       0.00000000
Fe       1.98650873       6.92404454       7.02638573  T       0.35373645       1.02654694      -0.83107851
Fe       1.95647161       4.97508175       5.00896902  T      -1.29919140      -1.96898491      -0.02394986
Fe       1.90384958       6.96032011       2.98802000  F       0.00000000       0.00000000       0.00000000
Fe       1.90384970       4.97227011       0.99999000  F       0.00000000       0.00000000       0.00000000
Fe       0.69608069       4.98784501       7.01816083  T       0.54179843       0.04027974      -0.31317899
Fe       0.53960544       6.97001149       4.99412549  T       0.90085347       0.82546486       0.53254108
Fe       0.49808970       4.97227003       2.98802000  F       0.00000000       0.00000000       0.00000000
Fe       0.49808958       6.96032003       0.99999000  F       0.00000000       0.00000000       0.00000000
Fe       4.82208940       0.97894648       5.06746129  T      -0.10330253      -1.90719136      -0.59717615
Fe       4.75633309       6.96505151       7.00104299  T       0.60566610       0.97448551       2.00661116
Fe       4.76382015       5.05194488       4.95982754  T       0.74930551      -1.14864531       0.30949971
Fe       0.49808994       0.99617003       2.98802000  F       0.00000000       0.00000000       0.00000000
Fe       0.52123303       2.91250996       5.15620708  T      -1.99459919       0.43151257       1.50222893
Fe       0.55106138       0.97171258       7.09843012  T       0.85231557       0.45903055       0.30172599
Fe       1.90384994       0.99617011       0.99999000  F       0.00000000       0.00000000       0.00000000
Fe       1.90384982       2.98422011       2.98802000  F       0.00000000       0.00000000       0.00000000
Fe       2.00059739       1.02914648       5.02536135  T       1.51177042      -1.92157958      -0.85732687
Fe       3.30961982       2.98422020       0.99999000  F       0.00000000       0.00000000       0.00000000
Fe       3.30961994       0.99617020       2.98802000  F       0.00000000       0.00000000       0.00000000
Fe       3.34334303       2.99422503       5.07012802  T       0.76111865       0.60435441      -0.20515180
Fe       3.45114225       0.95170471       7.11079702  T       0.09925547      -0.53029190      -1.03220467
Fe       4.71537994       0.99617028       0.99999000  F       0.00000000       0.00000000       0.00000000
Fe       4.71537982       2.98422028       2.98802000  F       0.00000000       0.00000000       0.00000000
Fe       1.95219737       2.94205399       7.04989859  T      -0.39096934      -0.40510334       0.40631157
H        3.39181997       2.39464581      16.10113916  T      -0.23009449      -0.23853689      -0.05022945
H        4.42953963       0.70420588      15.96302803  T      -0.24776236       0.35948981      -0.05585708
34
Lattice="5.6230505520000085 -3.486609872344063e-23 0.0 -4.780041916831046e-07 7.952194478999986 0.0 0.0 0.0 20.964144513" Properties=species:S:1:pos:R:3:move_mask:L:1:momenta:R:3 potential_energy=-276.2980525553743 source=escape_md iteration=11 basin_id=12 chain_accepted=T frame_id=934 energy=-276.2980525553743 pbc="T T T"
Fe       0.49808982       2.98422003       0.99999000  F       0.00000000       0.00000000       0.00000000
Fe       4.74513172       3.00211022       6.93909937  T      -0.32172988       0.00078482      -0.52298174
Fe       4.71537958       6.96032028       2.98802000  F       0.00000000       0.00000000       0.00000000
Fe       4.71537970       4.97227028       0.99999000  F       0.00000000       0.00000000       0.00000000
Fe       3.28267722       4.97743116       7.09479621  T      -0.04866257       1.86609824       0.10473409
Fe       3.20642349       6.98534766       4.95983947  T       1.88792920       1.03522060      -0.02913674
Fe       3.30961970       4.97227020       2.98802000  F       0.00000000       0.00000000       0.00000000
Fe       3.30961958       6.96032020       0.99999000  F       0.00000000       0.00000000       0.00000000
Fe       1.80194962       7.03086773       6.92402820  T       0.97986488      -1.31834392       0.36473034
Fe       1.86114429       4.98420472       5.01717826  T      -1.18107254      -0.04408445      -0.41419124
Fe       1.90384958       6.96032011       2.98802000  F       0.00000000       0.00000000       0.00000000
Fe       1.90384970       4.97227011       0.99999000  F       0.00000000       0.00000000       0.00000000
Fe       0.48752237       5.06575987       6.96909804  T      -0.59632196      -0.33420621      -0.14080979
Fe       0.45606169       7.02097428       4.91188036  T      -1.34278809       0.63211313      -0.38953432
Fe       0.49808970       4.97227003       2.98802000  F       0.00000000       0.00000000       0.00000000
Fe       0.49808958       6.96032003       0.99999000  F       0.00000000       0.00000000       0.00000000
Fe       4.66659487       1.01736747       4.92590976  T       1.38546772      -0.01827092      -0.37312102
Fe       4.71521076       6.99749248       6.86266890  T      -0.21679135      -0.46515772      -0.77218078
Fe       4.62114820       5.07037634       5.02871810  T       0.52300958      -0.93168992      -0.31461228
Fe       0.49808994       0.99617003       2.98802000  F       0.00000000       0.00000000       0.00000000
Fe       0.41582650       3.06776956       4.96571809  T       0.40608204       0.05570978       0.15082446
Fe       0.49728090       1.07350899       6.89421255  T      -1.34949078       1.46358689      -0.64776001
Fe       1.90384994       0.99617011       0.99999000  F       0.00000000       0.00000000       0.00000000
Fe       1.90384982       2.98422011       2.98802000  F       0.00000000       0.00000000       0.00000000
Fe       1.86537361       1.08690091       4.97273669  T      -1.81671222       0.14649525      -2.43692403
Fe       3.30961982       2.98422020       0.99999000  F       0.00000000       0.00000000       0.00000000
Fe       3.30961994       0.99617020       2.98802000  F       0.00000000       0.00000000       0.00000000
Fe       3.26505331       3.05171067       4.97455445  T       1.01722810       0.78415031       0.48621683
Fe       3.33887337       0.97934617       6.88916065  T       0.04239419       2.04493476       0.72854072
Fe       4.71537994       0.99617028       0.99999000  F       0.00000000       0.00000000       0.00000000
Fe       4.71537982       2.98422028       2.98802000  F       0.00000000       0.00000000       0.00000000
Fe       1.88147669       3.03400097       6.93037066  T      -0.28167655      -0.82878363      -0.27875199
H        3.87781311       1.78619939      17.24153400  T      -0.03770745       0.16495819      -0.11202859
H        4.33401162       0.06359906      17.93392384  T      -0.02013867      -0.15207681       0.11467537
34
Lattice="5.6230505520000085 -3.486609872344063e-23 0.0 -4.780041916831046e-07 7.952194478999986 0.0 0.0 0.0 20.964144513" Properties=species:S:1:pos:R:3:move_mask:L:1:momenta:R:3 potential_energy=-276.4305318460494 source=escape_md iteration=1 basin_id=2 chain_accepted=T frame_id=98 energy=-276.4305318460494 pbc="T T T"
Fe       0.49808982       2.98422003       0.99999000  F       0.00000000       0.00000000       0.00000000
Fe       4.71647332       2.96968122       7.00566973  T      -1.19681984      -0.84952429      -2.11600098
Fe       4.71537958       6.96032028       2.98802000  F       0.00000000       0.00000000       0.00000000
Fe       4.71537970       4.97227028       0.99999000  F       0.00000000       0.00000000       0.00000000
Fe       3.31440670       4.95976734       7.00729295  T      -1.48715819       0.67844291      -0.18735065
Fe       3.31238051       6.95520736       5.01710709  T      -2.61675311       1.32673347      -0.86467446
Fe       3.30961970       4.97227020       2.98802000  F       0.00000000       0.00000000       0.00000000
Fe       3.30961958       6.96032020       0.99999000  F       0.00000000       0.00000000       0.00000000
Fe       1.90796401       6.94781663       7.00697158  T       0.51726316       1.88750587      -0.48991418
Fe       1.90610515       4.96484201       5.01507846  T      -2.11074335       1.52528740      -0.47376697
Fe       1.90384958       6.96032011       2.98802000  F       0.00000000       0.00000000       0.00000000
Fe       1.90384970       4.97227011       0.99999000  F       0.00000000       0.00000000       0.00000000
Fe       0.50098060       4.95857437       7.00643746  T       0.09916037       0.22894637       1.53817566
Fe       0.49984707       6.95179639       5.01532400  T      -1.20862914       0.47602827      -0.03696350
Fe       0.49808970       4.97227003       2.98802000  F       0.00000000       0.00000000       0.00000000
Fe       0.49808958       6.96032003       0.99999000  F       0.00000000       0.00000000       0.00000000
Fe       4.71775444       0.98933602       5.01629501  T      -0.41903302       2.76871459       1.58069932
Fe       4.71896105       6.95136083       7.00432106  T      -1.37503245       0.49694919      -0.58180122
Fe       4.71743145       4.96947725       5.01653930  T      -0.40641629       0.26486970       0.88492697
Fe       0.49808994       0.99617003       2.98802000  F       0.00000000       0.00000000       0.00000000
Fe       0.50156014       2.97989624       5.01204687  T       0.00905987       3.71262722       0.31882831
Fe       0.50421297       0.98709867       7.01029866  T       2.04836779       0.13080176       0.83005376
Fe       1.90384994       0.99617011       0.99999000  F       0.00000000       0.00000000       0.00000000
Fe       1.90384982       2.98422011       2.98802000  F       0.00000000       0.00000000       0.00000000
Fe       1.90540162       0.99148266       5.01170224  T       1.55110553       0.52385119      -0.40911021
Fe       3.30961982       2.98422020       0.99999000  F       0.00000000       0.00000000       0.00000000
Fe       3.30961994       0.99617020       2.98802000  F       0.00000000       0.00000000       0.00000000
Fe       3.31061938       2.97756028       5.01352926  T      -2.13675932       1.94924867       1.27940938
Fe       3.31135916       0.98432761       7.00689692  T      -1.02828999      -2.14739641      -4.23694106
Fe       4.71537994       0.99617028       0.99999000  F       0.00000000       0.00000000       0.00000000
Fe       4.71537982       2.98422028       2.98802000  F       0.00000000       0.00000000       0.00000000
Fe       1.90983667       2.97313796       7.00588071  T      -0.42493821       0.14217443      -0.12305611
H        0.85078947       1.88235767      16.17191955  T       0.15184653       0.06617701       0.12832853
H        3.11485291      -1.01931979      14.62116121  T      -0.13217771       0.17239391       0.31278012
34
Lattice="5.6230505520000085 -3.486609872344063e-23 0.0 -4.780041916831046e-07 7.952194478999986 0.0 0.0 0.0 20.964144513" Properties=species:S:1:pos:R:3:move_mask:L:1:momenta:R:3 potential_energy=-276.24756660149393 source=escape_md iteration=2 basin_id=3 chain_accepted=T frame_id=188 energy=-276.24756660149393 pbc="T T T"
Fe       0.49808982       2.98422003       0.99999000  F       0.00000000       0.00000000       0.00000000
Fe       4.76537013       3.04074512       7.00877587  T      -0.84088986       0.62720139      -0.37029818
Fe       4.71537958       6.96032028       2.98802000  F       0.00000000       0.00000000       0.00000000
Fe       4.71537970       4.97227028       0.99999000  F       0.00000000       0.00000000       0.00000000
Fe       3.30914688       5.08548083       6.93177824  T       0.15580013       2.42282924       0.91453320
Fe       3.29662490       7.03298241       5.03358177  T       0.17290554      -0.14908824       0.04792604
Fe       3.30961970       4.97227020       2.98802000  F       0.00000000       0.00000000       0.00000000
Fe       3.30961958       6.96032020       0.99999000  F       0.00000000       0.00000000       0.00000000
Fe       1.93915351       7.01498098       7.03010564  T       0.69804162      -0.29407230      -0.33243111
Fe       1.87681509       4.98172610       4.97723478  T       0.93127397      -0.71290991       0.85401738
Fe       1.90384958       6.96032011       2.98802000  F       0.00000000       0.00000000       0.00000000
Fe       1.90384970       4.97227011       0.99999000  F       0.00000000       0.00000000       0.00000000
Fe       0.49661698       5.00566673       6.97330317  T      -0.42981607       0.51632503       0.48270152
Fe       0.40705145       7.01448975       4.98651687  T       0.09272758       0.08435053      -1.02608463
Fe       0.49808970       4.97227003       2.98802000  F       0.00000000       0.00000000       0.00000000
Fe       0.49808958       6.96032003       0.99999000  F       0.00000000       0.00000000       0.00000000
Fe       4.69237534       1.07080936       4.97175223  T       1.89980475       0.49029405      -1.77010297
Fe       4.65253852       7.00364357       7.02835499  T       0.24242973       0.32031737       0.52844838
Fe       4.71068316       5.03505111       4.96082598  T      -1.87025319       0.16615320      -0.39168682
Fe       0.49808994       0.99617003       2.98802000  F       0.00000000       0.00000000       0.00000000
Fe       0.43845854       3.06731731       4.99500772  T      -0.06188179       0.14997348      -0.21318165
Fe       0.50072578       1.04649543       7.00156147  T      -1.54163983      -0.97839115      -0.62549417
Fe       1.90384994       0.99617011       0.99999000  F       0.00000000       0.00000000       0.00000000
Fe       1.90384982       2.98422011       2.98802000  F       0.00000000       0.00000000       0.00000000
Fe       1.98419705       1.04323504       5.11486690  T       0.53588604      -0.17571701       3.19528524
Fe       3.30961982       2.98422020       0.99999000  F       0.00000000       0.00000000       0.00000000
Fe       3.30961994       0.99617020       2.98802000  F       0.00000000       0.00000000       0.00000000
Fe       3.31660433       2.97265483       4.96609966  T       0.48253927      -0.58026521       0.67741489
Fe       3.25081758       1.02942417       6.99866174  T      -0.05450339      -0.76054238       0.53612138
Fe       4.71537994       0.99617028       0.99999000  F       0.00000000       0.00000000       0.00000000
Fe       4.71537982       2.98422028       2.98802000  F       0.00000000       0.00000000       0.00000000
Fe       1.87334035       3.04438697       6.95199948  T      -0.83218824       1.11943943      -0.19223070
H        1.10945901       1.82247036      17.96719434  T       0.03798588      -0.15689777      -0.04907239
H       -0.34129258       0.42837083      17.98831045  T      -0.22845120      -0.03314558      -0.09102437
34
Lattice="5.6230505520000085 -3.486609872344063e-23 0.0 -4.780041916831046e-07 7.952194478999986 0.0 0.0 0.0 20.964144513" Properties=species:S:1:pos:R:3:move_mask:L:1:momenta:R:3 potential_energy=-269.1039883560383 source=escape_md iteration=0 basin_id=1 chain_accepted=T frame_id=1 energy=-269.1039883560383 pbc="T T T"
Fe       0.49808982       2.98422003       0.99999000  F       0.00000000       0.00000000       0.00000000
Fe       4.71561107       3.00088257       6.99031609  T       2.06332291      -4.27999854      -2.85659962
Fe       4.71537958       6.96032028       2.98802000  F       0.00000000       0.00000000       0.00000000
Fe       4.71537970       4.97227028       0.99999000  F       0.00000000       0.00000000       0.00000000
Fe       3.31901843       4.97152362       7.00453351  T       0.14485197       2.47283634       1.02557827
Fe       3.31013697       6.96134557       5.01498971  T      -1.88503545       0.80893099      -2.10350698
Fe       3.30961970       4.97227020       2.98802000  F       0.00000000       0.00000000       0.00000000
Fe       3.30961958       6.96032020       0.99999000  F       0.00000000       0.00000000       0.00000000
Fe       1.90405251       6.97299750       7.01002511  T      -0.93962552      -0.77247765       1.16773011
Fe       1.90391522       4.97242160       5.01081664  T       0.80167701       0.90541421       0.94509483
Fe       1.90384958       6.96032011       2.98802000  F       0.00000000       0.00000000       0.00000000
Fe       1.90384970       4.97227011       0.99999000  F       0.00000000       0.00000000       0.00000000
Fe       0.48915169       4.97143958       7.00454877  T      -0.24996728      -1.84305671      -1.80866979
Fe       0.49779376       6.96132516       5.01497839  T       1.42720962       1.63048149       1.19152104
Fe       0.49808970       4.97227003       2.98802000  F       0.00000000       0.00000000       0.00000000
Fe       0.49808958       6.96032003       0.99999000  F       0.00000000       0.00000000       0.00000000
Fe       4.71547872       0.99472093       5.00159245  T       1.48933708       0.14824864       0.63424310
Fe       4.71561858       6.95614276       7.00838848  T       1.38486107      -3.19657217      -0.70126482
Fe       4.71548599       4.96826828       5.02265196  T      -1.03185954      -1.40151048      -0.60358134
Fe       0.49808994       0.99617003       2.98802000  F       0.00000000       0.00000000       0.00000000
Fe       0.49979350       2.98632363       5.00974998  T      -3.69172233      -0.73463946       0.35703245
Fe       0.50902947       0.99678115       6.98937735  T       1.28599973       1.56022236       1.74037097
Fe       1.90384994       0.99617011       0.99999000  F       0.00000000       0.00000000       0.00000000
Fe       1.90384982       2.98422011       2.98802000  F       0.00000000       0.00000000       0.00000000
Fe       1.90401307       0.99189967       5.01777342  T      -2.01700844       1.09062475       0.31244026
Fe       3.30961982       2.98422020       0.99999000  F       0.00000000       0.00000000       0.00000000
Fe       3.30961994       0.99617020       2.98802000  F       0.00000000       0.00000000       0.00000000
Fe       3.30816378       2.98627086       5.00967299  T      -1.45207123      -0.79643358      -0.83742089
Fe       3.29921820       0.99669190       6.98933962  T      -2.62332118       1.06827469      -1.02973096
Fe       4.71537994       0.99617028       0.99999000  F       0.00000000       0.00000000       0.00000000
Fe       4.71537982       2.98422028       2.98802000  F       0.00000000       0.00000000       0.00000000
Fe       1.90410738       2.97778242       7.00124828  T      -0.17487836      -3.70151648      -3.17454001
H        1.90409991       5.45979257       7.96352112  T      -0.38983234      -0.29391334       0.11782337
H        4.71577241       1.50078182       7.93219220  T      -0.26686711      -0.11145387       0.38291476
34
Lattice="5.6230505520000085 -3.486609872344063e-23 0.0 -4.780041916831046e-07 7.952194478999986 0.0 0.0 0.0 20.964144513" Properties=species:S:1:pos:R:3:move_mask:L:1:momenta:R:3 potential_energy=-276.10985380255266 source=escape_md iteration=3 basin_id=4 chain_accepted=T frame_id=261 energy=-276.10985380255266 pbc="T T T"
Fe       0.49808982       2.98422003       0.99999000  F       0.00000000       0.00000000       0.00000000
Fe       4.67643672       2.97108217       7.13109502  T      -0.37692391      -0.58190356       1.91413562
Fe       4.71537958       6.96032028       2.98802000  F       0.00000000       0.00000000       0.00000000
Fe       4.71537970       4.97227028       0.99999000  F       0.00000000       0.00000000       0.00000000
Fe       3.23322260       5.03372892       7.12414932  T      -0.88042361       0.27452323       2.00030263
Fe       3.32904960       6.98531622       4.98852468  T       0.18617420       0.84290283       0.01944896
Fe       3.30961970       4.97227020       2.98802000  F       0.00000000       0.00000000       0.00000000
Fe       3.30961958       6.96032020       0.99999000  F       0.00000000       0.00000000       0.00000000
Fe       1.87503805       7.02180932       6.93084075  T      -0.23257373       0.30333656      -1.04381273
Fe       1.95931645       5.05731781       5.06375822  T       0.37690963       0.51748935       0.48726315
Fe       1.90384958       6.96032011       2.98802000  F       0.00000000       0.00000000       0.00000000
Fe       1.90384970       4.97227011       0.99999000  F       0.00000000       0.00000000       0.00000000
Fe       0.51633539       5.02128344       7.01777989  T       0.07279490       0.05218648       0.00916548
Fe       0.56610783       7.03996073       4.87015545  T       0.55856397       0.38424215      -1.23769576
Fe       0.49808970       4.97227003       2.98802000  F       0.00000000       0.00000000       0.00000000
Fe       0.49808958       6.96032003       0.99999000  F       0.00000000       0.00000000       0.00000000
Fe       4.72205649       0.98189941       4.98147410  T      -0.23189163      -0.11623864       0.00904646
Fe       4.79102447       6.96951497       7.01704829  T       1.04680714      -0.53899639       0.05047339
Fe       4.63223391       5.08234788       5.05425046  T      -0.21178443       0.55683183       0.74385892
Fe       0.49808994       0.99617003       2.98802000  F       0.00000000       0.00000000       0.00000000
Fe       0.53566727       3.01260714       5.00856485  T      -0.38677507       0.76337254       0.12792947
Fe       0.45905058       1.00416174       7.04259882  T      -0.55767140      -0.44893330       0.70211531
Fe       1.90384994       0.99617011       0.99999000  F       0.00000000       0.00000000       0.00000000
Fe       1.90384982       2.98422011       2.98802000  F       0.00000000       0.00000000       0.00000000
Fe       1.83704569       1.08315057       5.08097486  T       0.07063843       0.58743873       0.82121909
Fe       3.30961982       2.98422020       0.99999000  F       0.00000000       0.00000000       0.00000000
Fe       3.30961994       0.99617020       2.98802000  F       0.00000000       0.00000000       0.00000000
Fe       3.30285802       3.02808724       5.09277689  T       0.29764368       0.16072457       1.18004738
Fe       3.31143514       0.98251159       7.03934825  T       0.09127892      -0.83494578       0.70439405
Fe       4.71537994       0.99617028       0.99999000  F       0.00000000       0.00000000       0.00000000
Fe       4.71537982       2.98422028       2.98802000  F       0.00000000       0.00000000       0.00000000
Fe       1.80858432       3.03136481       7.00817401  T      -1.18019924      -0.17217058       0.31747347
H        1.43016665       0.28059625      16.58534607  T      -0.01853636      -0.47952792      -0.28826912
H        0.42927956       0.85773911      18.24676653  T       0.17840793      -0.09942841       0.01705718
34
Lattice="5.6230505520000085 -3.486609872344063e-23 0.0 -4.780041916831046e-07 7.952194478999986 0.0 0.0 0.0 20.964144513" Properties=species:S:1:pos:R:3:move_mask:L:1:momenta:R:3 potential_energy=-276.30908739580104 source=escape_md iteration=17 basin_id=18 chain_accepted=T frame_id=1374 energy=-276.30908739580104 pbc="T T T"
Fe       0.49808982       2.98422003       0.99999000  F       0.00000000       0.00000000       0.00000000
Fe       4.71645281       2.98743738       6.99427984  T       0.18973101       0.30103550      -0.29604061
Fe       4.71537958       6.96032028       2.98802000  F       0.00000000       0.00000000       0.00000000
Fe       4.71537970       4.97227028       0.99999000  F       0.00000000       0.00000000       0.00000000
Fe       3.29077078       4.98272190       7.05959108  T      -0.51779582       0.50597579       1.32990581
Fe       3.30499252       6.97931099       4.95870361  T      -0.37529667       0.46674250      -1.11327352
Fe       3.30961970       4.97227020       2.98802000  F       0.00000000       0.00000000       0.00000000
Fe       3.30961958       6.96032020       0.99999000  F       0.00000000       0.00000000       0.00000000
Fe       1.90369635       6.91002914       7.10258264  T      -0.05251141      -0.93193206       2.38581799
Fe       1.86541283       4.96551315       5.02751575  T      -0.82721812      -0.08626274       0.35382555
Fe       1.90384958       6.96032011       2.98802000  F       0.00000000       0.00000000       0.00000000
Fe       1.90384970       4.97227011       0.99999000  F       0.00000000       0.00000000       0.00000000
Fe       0.48914776       4.98673838       6.98975082  T      -0.43009944       0.50115450      -0.49253143
Fe       0.48940309       6.93689766       4.95491921  T       0.01229246      -0.40734810      -1.39582658
Fe       0.49808970       4.97227003       2.98802000  F       0.00000000       0.00000000       0.00000000